Program Version,EnergyPlus, Version 9.4.0-998c4b761e, YMD=2021.02.22 16:14
1,5,Environment Title[],Latitude[deg],Longitude[deg],Time Zone[],Elevation[m]
2,8,Day of Simulation[],Month[],Day of Month[],DST Indicator[1=yes 0=no],Hour[],StartMinute[],EndMinute[],DayType
3,5,Cumulative Day of Simulation[],Month[],Day of Month[],DST Indicator[1=yes 0=no],DayType  ! When Daily Report Variables Requested
4,2,Cumulative Days of Simulation[],Month[]  ! When Monthly Report Variables Requested
5,1,Cumulative Days of Simulation[] ! When Run Period Report Variables Requested
6,1,Calendar Year of Simulation[] ! When Annual Report Variables Requested
7,1,Environment,Site Outdoor Air Drybulb Temperature [C] !Hourly
8,1,Environment,Site Outdoor Air Wetbulb Temperature [C] !Hourly
1920,11,EMS,Chiller0 Nominal Capacity [W] !RunPeriod [Value,Min,Month,Day,Hour,Minute,Max,Month,Day,Hour,Minute]
4466,1,90.1-2010 AIRCOOLED WITHCONDENSER  CHILLER 0 273TONS 1.3KW/TON,Chiller Part Load Ratio [] !Hourly
4467,1,90.1-2010 AIRCOOLED WITHCONDENSER  CHILLER 0 273TONS 1.3KW/TON,Chiller Electricity Rate [W] !TimeStep
4468,1,90.1-2010 AIRCOOLED WITHCONDENSER  CHILLER 0 273TONS 1.3KW/TON,Chiller Electricity Rate [W] !Hourly
4470,1,90.1-2010 AIRCOOLED WITHCONDENSER  CHILLER 0 273TONS 1.3KW/TON,Chiller Evaporator Cooling Rate [W] !TimeStep
4471,1,90.1-2010 AIRCOOLED WITHCONDENSER  CHILLER 0 273TONS 1.3KW/TON,Chiller Evaporator Cooling Rate [W] !Hourly
4485,1,90.1-2010 AIRCOOLED WITHCONDENSER  CHILLER 0 273TONS 1.3KW/TON,Chiller Evaporator Inlet Temperature [C] !TimeStep
4486,1,90.1-2010 AIRCOOLED WITHCONDENSER  CHILLER 0 273TONS 1.3KW/TON,Chiller Evaporator Inlet Temperature [C] !Hourly
4487,1,90.1-2010 AIRCOOLED WITHCONDENSER  CHILLER 0 273TONS 1.3KW/TON,Chiller Evaporator Outlet Temperature [C] !Hourly
4488,1,90.1-2010 AIRCOOLED WITHCONDENSER  CHILLER 0 273TONS 1.3KW/TON,Chiller Evaporator Mass Flow Rate [kg/s] !Hourly
4514,1,90.1-2010 AIRCOOLED WITHCONDENSER  CHILLER 0 273TONS 1.3KW/TON,Chiller COP [W/W] !Hourly
11,1,Electricity:Facility [J] !TimeStep
1848,1,NaturalGas:Facility [J] !TimeStep
End of Data Dictionary
1,EL PASO INTERNATIONAL AP  UT ANN CLG .4% CONDNS DB=>MWB,  33.63, -84.43,  -5.00, 308.00
2,1, 7,21, 0, 1, 0.00,60.00,SummerDesignDay
4467,114278.45612422291
4470,321079.5600809693
4485,8.195889962495425
11,1756598935.4594403
1848,803817455.7906952
2,1, 7,21, 0, 1, 0.00,60.00,SummerDesignDay
7,26.660000000000005
8,14.175033094112296
4466,0.27439205386398088
4468,114278.45612422291
4471,321079.5600809693
4486,8.195889962495425
4487,6.66666666666669
4488,50.07092625687486
4514,2.891466653919044
2,1, 7,21, 0, 2, 0.00,60.00,SummerDesignDay
4467,0.0
4470,0.0
4485,16.29694833223174
11,995696169.0154247
1848,819239263.875227
2,1, 7,21, 0, 2, 0.00,60.00,SummerDesignDay
7,26.14
8,13.978504899666877
4466,0.0
4468,0.0
4471,0.0
4486,16.29694833223174
4487,16.29694833223174
4488,0.0
4514,0.0
2,1, 7,21, 0, 3, 0.00,60.00,SummerDesignDay
4467,122650.68932816085
4470,364161.6356772761
4485,8.401166666911584
11,1850395823.1841083
1848,819239263.875227
2,1, 7,21, 0, 3, 0.00,60.00,SummerDesignDay
7,25.75
8,13.830189215515416
4466,0.28042939161614829
4468,122650.68932816085
4471,364161.6356772761
4486,8.401166666911584
4487,6.66666666666669
4488,50.07092625687486
4514,2.9614971327490138
2,1, 7,21, 0, 4, 0.00,60.00,SummerDesignDay
4467,0.0
4470,0.0
4485,16.337521326309284
11,995894280.1878693
1848,819239263.8752266
2,1, 7,21, 0, 4, 0.00,60.00,SummerDesignDay
7,25.36
8,13.68106877632172
4466,0.0
4468,0.0
4471,0.0
4486,16.337521326309284
4487,16.337521326309284
4488,0.0
4514,0.0
2,1, 7,21, 0, 5, 0.00,60.00,SummerDesignDay
4467,120268.52767883468
4470,353265.1811355083
4485,8.34923552056514
11,1835374145.7929998
1848,819239263.8752269
2,1, 7,21, 0, 5, 0.00,60.00,SummerDesignDay
7,25.1
8,13.581224472939958
4466,0.2767063838391974
4468,120268.52767883468
4471,353265.1811355083
4486,8.34923552056514
4487,6.666666666666688
4488,50.07092625687488
4514,3.003090412178183
2,1, 7,21, 0, 6, 0.00,60.00,SummerDesignDay
4467,0.0
4470,0.0
4485,16.35744794248326
11,995947283.3419452
1848,819239263.8752266
2,1, 7,21, 0, 6, 0.00,60.00,SummerDesignDay
7,25.36
8,13.68106877632172
4466,0.0
4468,0.0
4471,0.0
4486,16.35744794248326
4487,16.35744794248326
4488,0.0
4514,0.0
2,1, 7,21, 0, 7, 0.00,60.00,SummerDesignDay
4467,123041.0147587513
4470,355229.02844158766
4485,8.358595707218127
11,1789652077.4189888
1848,819239263.8752269
2,1, 7,21, 0, 7, 0.00,60.00,SummerDesignDay
7,26.270000000000004
8,14.027760006146153
4466,0.2780527867781177
4468,123041.0147587513
4471,355229.02844158766
4486,8.358595707218127
4487,6.666666666666688
4488,50.07092625687488
4514,2.9135660626366777
2,1, 7,21, 0, 8, 0.00,60.00,SummerDesignDay
4467,125522.48567263817
4470,345304.2876608403
4485,8.311242023869815
11,1749027054.6803823
1848,819239263.8752269
2,1, 7,21, 0, 8, 0.00,60.00,SummerDesignDay
7,28.480000000000005
8,14.852150556346784
4466,0.2713713007327207
4468,125522.48567263817
4471,345304.2876608403
4486,8.311242023869815
4487,6.666666666666689
4488,50.07092625687487
4514,2.7508750628683815
2,1, 7,21, 0, 9, 0.00,60.00,SummerDesignDay
4467,213405.1037868221
4470,653951.2149396676
4485,9.782761134185924
11,2400182159.085454
1848,988921308.2361993
2,1, 7,21, 0, 9, 0.00,60.00,SummerDesignDay
7,30.950000000000004
8,15.745192001948512
4466,0.5281143560085746
4468,213405.1037868221
4471,653951.2149396676
4486,9.782761134185924
4487,6.66666666666669
4488,50.07092625687488
4514,3.0643083618558064
2,1, 7,21, 0,10, 0.00,60.00,SummerDesignDay
4467,254275.3169801797
4470,745732.664055204
4485,10.220583940725204
11,2659845528.216067
1848,988921308.2361993
2,1, 7,21, 0,10, 0.00,60.00,SummerDesignDay
7,33.160000000000007
8,16.520052477587094
4466,0.6180318080673064
4468,254275.3169801797
4471,745732.664055204
4486,10.220583940725204
4487,6.66666666666669
4488,50.07092625687488
4514,2.93277415225736
2,1, 7,21, 0,11, 0.00,60.00,SummerDesignDay
4467,304142.862457864
4470,852330.7346190461
4485,10.729187036930629
11,2974275860.0313627
1848,1054183632.9904195
2,1, 7,21, 0,11, 0.00,60.00,SummerDesignDay
7,35.11
8,17.185685697633138
4466,0.7236325012366569
4468,304142.862457864
4471,852330.7346190461
4486,10.729187036930629
4487,6.666666666666689
4488,50.07092625687487
4514,2.8024014481469727
2,1, 7,21, 0,12, 0.00,60.00,SummerDesignDay
4467,345126.43994444227
4470,933713.0441227544
4485,11.117579962469133
11,3194907009.817186
1848,1054183632.9904195
2,1, 7,21, 0,12, 0.00,60.00,SummerDesignDay
7,36.410000000000007
8,17.620354028004188
4466,0.8061581990726544
4468,345126.43994444227
4471,933713.0441227544
4486,11.117579962469133
4487,6.66666666666669
4488,50.07092625687488
4514,2.7054230731840205
2,1, 7,21, 0,13, 0.00,60.00,SummerDesignDay
4467,379150.5091058587
4470,994496.5001959934
4485,11.407722384307127
11,3345388519.0115396
1848,1054183632.9904195
2,1, 7,21, 0,13, 0.00,60.00,SummerDesignDay
7,37.45
8,17.963029366408685
4466,0.8706305669767215
4468,379150.5091058587
4471,994496.5001959934
4486,11.407722384307127
4487,6.66666666666669
4488,50.07092625687488
4514,2.622959685696559
2,1, 7,21, 0,14, 0.00,60.00,SummerDesignDay
4467,402122.7574668729
4470,1033489.4429515589
4485,11.593875880883676
11,3445367625.2134668
1848,923658983.4819791
2,1, 7,21, 0,14, 0.00,60.00,SummerDesignDay
7,38.1
8,18.17495265488572
4466,0.9128270007959858
4468,402122.7574668729
4471,1033489.4429515589
4486,11.593875880883676
4487,6.666666666666691
4488,50.07092625687487
4514,2.57008446452539
2,1, 7,21, 0,15, 0.00,60.00,SummerDesignDay
4467,403148.0676312627
4470,1036044.1554438408
4485,11.60607285168444
11,3460551010.9647948
1848,923658983.4819791
2,1, 7,21, 0,15, 0.00,60.00,SummerDesignDay
7,38.1
8,18.17495265488572
4466,0.9150834443021388
4468,403148.0676312627
4471,1036044.1554438408
4486,11.60607285168444
4487,6.66666666666669
4488,50.07092625687488
4514,2.569885002317884
2,1, 7,21, 0,16, 0.00,60.00,SummerDesignDay
4467,385061.6341404275
4470,1013589.9701189193
4485,11.498872700628123
11,3362984380.428455
1848,819239263.8752267
2,1, 7,21, 0,16, 0.00,60.00,SummerDesignDay
7,37.32
8,17.92043725317985
4466,0.8857898586359142
4468,385061.6341404275
4471,1013589.9701189193
4486,11.498872700628123
4487,6.666666666666689
4488,50.07092625687486
4514,2.6322798234038848
2,1, 7,21, 0,17, 0.00,60.00,SummerDesignDay
4467,338908.4049347845
4470,920209.7587518361
4485,11.053130421774574
11,3100273268.4601647
1848,819239263.8752267
2,1, 7,21, 0,17, 0.00,60.00,SummerDesignDay
7,36.28
8,17.57722366262878
4466,0.7931448326294486
4468,338908.4049347845
4471,920209.7587518361
4486,11.053130421774574
4487,6.666666666666691
4488,50.07092625687488
4514,2.7152149188614178
2,1, 7,21, 0,18, 0.00,60.00,SummerDesignDay
4467,303085.5613678449
4470,852576.0913754111
4485,10.73035781964675
11,2799049562.3522918
1848,819239263.8752269
2,1, 7,21, 0,18, 0.00,60.00,SummerDesignDay
7,34.980000000000007
8,17.141821293634558
4466,0.7226486912717455
4468,303085.5613678449
4471,852576.0913754111
4486,10.73035781964675
4487,6.666666666666689
4488,50.07092625687487
4514,2.8129881010542308
2,1, 7,21, 0,19, 0.00,60.00,SummerDesignDay
4467,253254.94075738506
4470,745415.2704993268
4485,10.219069830709284
11,2601416152.9171507
1848,819239263.8752269
2,1, 7,21, 0,19, 0.00,60.00,SummerDesignDay
7,33.03
8,16.475099479108093
4466,0.6168026031352657
4468,253254.94075738506
4471,745415.2704993268
4486,10.219069830709284
4487,6.66666666666669
4488,50.07092625687488
4514,2.9433353400513759
2,1, 7,21, 0,20, 0.00,60.00,SummerDesignDay
4467,214470.54328076266
4470,644271.145915974
4485,9.736587543769883
11,2485835907.827163
1848,819239263.8752269
2,1, 7,21, 0,20, 0.00,60.00,SummerDesignDay
7,31.6
8,15.97540852518031
4466,0.5241928693113576
4468,214470.54328076266
4471,644271.145915974
4486,9.736587543769883
4487,6.666666666666689
4488,50.07092625687488
4514,3.004007618298243
2,1, 7,21, 0,21, 0.00,60.00,SummerDesignDay
4467,190841.48241672724
4470,580688.553122144
4485,9.43333933077847
11,2308793223.71031
1848,819239263.8752269
2,1, 7,21, 0,21, 0.00,60.00,SummerDesignDay
7,30.43
8,15.559591595966405
4466,0.46620132086415336
4468,190841.48241672724
4471,580688.553122144
4486,9.43333933077847
4487,6.666666666666691
4488,50.07092625687488
4514,3.0427780237031065
2,1, 7,21, 0,22, 0.00,60.00,SummerDesignDay
4467,123723.86132954162
4470,340474.07075378458
4485,8.974996666696296
11,1855622864.7620676
1848,819239263.875227
2,1, 7,21, 0,22, 0.00,60.00,SummerDesignDay
7,29.26
8,15.137324749040739
4466,0.2698340666259583
4468,123723.86132954162
4471,340474.07075378458
4486,8.974996666696296
4487,7.353356198123844
4488,46.73286450641655
4514,2.558159499285506
2,1, 7,21, 0,23, 0.00,60.00,SummerDesignDay
4467,0.0
4470,0.0
4485,16.288836878886028
11,1027768853.2845881
1848,819239263.875227
2,1, 7,21, 0,23, 0.00,60.00,SummerDesignDay
7,28.35
8,14.804330592345086
4466,0.0
4468,0.0
4471,0.0
4486,16.288836878886028
4487,16.288836878886028
4488,0.0
4514,0.0
2,1, 7,21, 0,24, 0.00,60.00,SummerDesignDay
4467,130138.1983719241
4470,377546.39019072605
4485,8.464956466776944
11,1922107272.896104
1848,819239263.875227
2,1, 7,21, 0,24, 0.00,60.00,SummerDesignDay
7,27.44
8,14.467254101353694
4466,0.29410542744406367
4468,130138.1983719241
4471,377546.39019072605
4486,8.464956466776944
4487,6.66666666666669
4488,50.07092625687486
4514,2.8780991768070889
5,1
1920,1179423.2549785448,1179423.2549785444, 7,21, 1,60,1179423.2549785444, 7,21, 1,60
1,EL PASO INTERNATIONAL AP  UT ANN HTG 99.6% CONDNS DB,  33.63, -84.43,  -5.00, 308.00
2,1,12,21, 0, 1, 0.00,60.00,WinterDesignDay
4467,0.0
4470,0.0
4485,6.66666666666669
11,506568183.2387021
1848,2906961559.4405057
2,1,12,21, 0, 1, 0.00,60.00,WinterDesignDay
7,-5.2
8,-5.200005819824274
4466,0.0
4468,0.0
4471,0.0
4486,6.66666666666669
4487,6.66666666666669
4488,0.0
4514,0.0
2,1,12,21, 0, 2, 0.00,60.00,WinterDesignDay
4467,0.0
4470,0.0
4485,6.666666666666688
11,253420087.50025527
1848,819239263.8752269
2,1,12,21, 0, 2, 0.00,60.00,WinterDesignDay
7,-5.2
8,-5.200005819824274
4466,0.0
4468,0.0
4471,0.0
4486,6.666666666666688
4487,6.666666666666688
4488,0.0
4514,0.0
2,1,12,21, 0, 3, 0.00,60.00,WinterDesignDay
4467,0.0
4470,0.0
4485,6.666666666666691
11,519998680.0050722
1848,2853105032.4821927
2,1,12,21, 0, 3, 0.00,60.00,WinterDesignDay
7,-5.2
8,-5.200005819824274
4466,0.0
4468,0.0
4471,0.0
4486,6.666666666666691
4487,6.666666666666691
4488,0.0
4514,0.0
2,1,12,21, 0, 4, 0.00,60.00,WinterDesignDay
4467,0.0
4470,0.0
4485,6.66666666666669
11,253489153.7999557
1848,819239263.8752271
2,1,12,21, 0, 4, 0.00,60.00,WinterDesignDay
7,-5.2
8,-5.200005819824274
4466,0.0
4468,0.0
4471,0.0
4486,6.66666666666669
4487,6.66666666666669
4488,0.0
4514,0.0
2,1,12,21, 0, 5, 0.00,60.00,WinterDesignDay
4467,0.0
4470,0.0
4485,6.666666666666691
11,520431881.4822032
1848,2870075964.8126118
2,1,12,21, 0, 5, 0.00,60.00,WinterDesignDay
7,-5.2
8,-5.200005819824274
4466,0.0
4468,0.0
4471,0.0
4486,6.666666666666691
4487,6.666666666666691
4488,0.0
4514,0.0
2,1,12,21, 0, 6, 0.00,60.00,WinterDesignDay
4467,0.0
4470,0.0
4485,6.66666666666669
11,253476525.8659568
1848,819239263.8752271
2,1,12,21, 0, 6, 0.00,60.00,WinterDesignDay
7,-5.2
8,-5.200005819824274
4466,0.0
4468,0.0
4471,0.0
4486,6.66666666666669
4487,6.66666666666669
4488,0.0
4514,0.0
2,1,12,21, 0, 7, 0.00,60.00,WinterDesignDay
4467,0.0
4470,0.0
4485,6.666666666666691
11,532520500.3711995
1848,2868208055.8705136
2,1,12,21, 0, 7, 0.00,60.00,WinterDesignDay
7,-5.2
8,-5.200005819824274
4466,0.0
4468,0.0
4471,0.0
4486,6.666666666666691
4487,6.666666666666691
4488,0.0
4514,0.0
2,1,12,21, 0, 8, 0.00,60.00,WinterDesignDay
4467,0.0
4470,0.0
4485,6.66666666666669
11,546878892.0896362
1848,2978557400.734399
2,1,12,21, 0, 8, 0.00,60.00,WinterDesignDay
7,-5.2
8,-5.200005819824274
4466,0.0
4468,0.0
4471,0.0
4486,6.66666666666669
4487,6.66666666666669
4488,0.0
4514,0.0
2,1,12,21, 0, 9, 0.00,60.00,WinterDesignDay
4467,0.0
4470,0.0
4485,6.666666666666688
11,535842006.97899588
1848,5886452906.113252
2,1,12,21, 0, 9, 0.00,60.00,WinterDesignDay
7,-5.2
8,-5.200005819824274
4466,0.0
4468,0.0
4471,0.0
4486,6.666666666666688
4487,6.666666666666688
4488,0.0
4514,0.0
2,1,12,21, 0,10, 0.00,60.00,WinterDesignDay
4467,0.0
4470,0.0
4485,6.66666666666669
11,531790656.08946976
1848,5879161954.785828
2,1,12,21, 0,10, 0.00,60.00,WinterDesignDay
7,-5.2
8,-5.200005819824274
4466,0.0
4468,0.0
4471,0.0
4486,6.66666666666669
4487,6.66666666666669
4488,0.0
4514,0.0
2,1,12,21, 0,11, 0.00,60.00,WinterDesignDay
4467,0.0
4470,0.0
4485,6.66666666666669
11,531705156.39521816
1848,5876173733.7603449
2,1,12,21, 0,11, 0.00,60.00,WinterDesignDay
7,-5.2
8,-5.200005819824274
4466,0.0
4468,0.0
4471,0.0
4486,6.66666666666669
4487,6.66666666666669
4488,0.0
4514,0.0
2,1,12,21, 0,12, 0.00,60.00,WinterDesignDay
4467,0.0
4470,0.0
4485,6.66666666666669
11,531004790.5921199
1848,5874846080.746216
2,1,12,21, 0,12, 0.00,60.00,WinterDesignDay
7,-5.2
8,-5.200005819824274
4466,0.0
4468,0.0
4471,0.0
4486,6.66666666666669
4487,6.66666666666669
4488,0.0
4514,0.0
2,1,12,21, 0,13, 0.00,60.00,WinterDesignDay
4467,0.0
4470,0.0
4485,6.66666666666669
11,531567061.5222937
1848,5872636512.229511
2,1,12,21, 0,13, 0.00,60.00,WinterDesignDay
7,-5.2
8,-5.200005819824274
4466,0.0
4468,0.0
4471,0.0
4486,6.66666666666669
4487,6.66666666666669
4488,0.0
4514,0.0
2,1,12,21, 0,14, 0.00,60.00,WinterDesignDay
4467,0.0
4470,0.0
4485,6.66666666666669
11,531403803.00916048
1848,5871718010.405441
2,1,12,21, 0,14, 0.00,60.00,WinterDesignDay
7,-5.2
8,-5.200005819824274
4466,0.0
4468,0.0
4471,0.0
4486,6.66666666666669
4487,6.66666666666669
4488,0.0
4514,0.0
2,1,12,21, 0,15, 0.00,60.00,WinterDesignDay
4467,0.0
4470,0.0
4485,6.66666666666669
11,532047344.64976868
1848,5869784025.369643
2,1,12,21, 0,15, 0.00,60.00,WinterDesignDay
7,-5.2
8,-5.200005819824274
4466,0.0
4468,0.0
4471,0.0
4486,6.66666666666669
4487,6.66666666666669
4488,0.0
4514,0.0
2,1,12,21, 0,16, 0.00,60.00,WinterDesignDay
4467,0.0
4470,0.0
4485,6.66666666666669
11,531453640.31078228
1848,5869198117.306385
2,1,12,21, 0,16, 0.00,60.00,WinterDesignDay
7,-5.2
8,-5.200005819824274
4466,0.0
4468,0.0
4471,0.0
4486,6.66666666666669
4487,6.66666666666669
4488,0.0
4514,0.0
2,1,12,21, 0,17, 0.00,60.00,WinterDesignDay
4467,0.0
4470,0.0
4485,6.66666666666669
11,531100111.4839368
1848,5867599114.734273
2,1,12,21, 0,17, 0.00,60.00,WinterDesignDay
7,-5.2
8,-5.200005819824274
4466,0.0
4468,0.0
4471,0.0
4486,6.66666666666669
4487,6.66666666666669
4488,0.0
4514,0.0
2,1,12,21, 0,18, 0.00,60.00,WinterDesignDay
4467,0.0
4470,0.0
4485,6.66666666666669
11,562848199.4416202
1848,5867258778.391506
2,1,12,21, 0,18, 0.00,60.00,WinterDesignDay
7,-5.2
8,-5.200005819824274
4466,0.0
4468,0.0
4471,0.0
4486,6.66666666666669
4487,6.66666666666669
4488,0.0
4514,0.0
2,1,12,21, 0,19, 0.00,60.00,WinterDesignDay
4467,0.0
4470,0.0
4485,6.66666666666669
11,563494707.5195553
1848,5865981012.207266
2,1,12,21, 0,19, 0.00,60.00,WinterDesignDay
7,-5.2
8,-5.200005819824274
4466,0.0
4468,0.0
4471,0.0
4486,6.66666666666669
4487,6.66666666666669
4488,0.0
4514,0.0
2,1,12,21, 0,20, 0.00,60.00,WinterDesignDay
4467,0.0
4470,0.0
4485,6.66666666666669
11,563293825.0432415
1848,5865802023.996673
2,1,12,21, 0,20, 0.00,60.00,WinterDesignDay
7,-5.2
8,-5.200005819824274
4466,0.0
4468,0.0
4471,0.0
4486,6.66666666666669
4487,6.66666666666669
4488,0.0
4514,0.0
2,1,12,21, 0,21, 0.00,60.00,WinterDesignDay
4467,0.0
4470,0.0
4485,6.66666666666669
11,566651839.1199139
1848,5865430626.098221
2,1,12,21, 0,21, 0.00,60.00,WinterDesignDay
7,-5.2
8,-5.200005819824274
4466,0.0
4468,0.0
4471,0.0
4486,6.66666666666669
4487,6.66666666666669
4488,0.0
4514,0.0
2,1,12,21, 0,22, 0.00,60.00,WinterDesignDay
4467,0.0
4470,0.0
4485,6.666666666666691
11,510528274.859033
1848,2828507801.5869867
2,1,12,21, 0,22, 0.00,60.00,WinterDesignDay
7,-5.2
8,-5.200005819824274
4466,0.0
4468,0.0
4471,0.0
4486,6.666666666666691
4487,6.666666666666691
4488,0.0
4514,0.0
2,1,12,21, 0,23, 0.00,60.00,WinterDesignDay
4467,0.0
4470,0.0
4485,6.66666666666669
11,264107818.95384
1848,819239263.8752271
2,1,12,21, 0,23, 0.00,60.00,WinterDesignDay
7,-5.2
8,-5.200005819824274
4466,0.0
4468,0.0
4471,0.0
4486,6.66666666666669
4487,6.66666666666669
4488,0.0
4514,0.0
2,1,12,21, 0,24, 0.00,60.00,WinterDesignDay
4467,0.0
4470,0.0
4485,6.666666666666688
11,531007185.69040897
1848,2885465189.2284104
2,1,12,21, 0,24, 0.00,60.00,WinterDesignDay
7,-5.2
8,-5.200005819824274
4466,0.0
4468,0.0
4471,0.0
4486,6.666666666666688
4487,6.666666666666688
4488,0.0
4514,0.0
5,1
1920,1179423.2549785448,1179423.2549785444,12,21, 1,60,1179423.2549785444,12,21, 1,60
End of Data
 Number of Records Written=         674
